[Molden Format]
Written by Sparrow, the semiempirical library of the SCINE software package
[Atoms] (AU)
C    1         6                2.5136614034       0.3560882559       0.3416654693
C    2         6                5.0092383923       0.7272650300      -0.3981867808
C    3         6                5.6333013401       2.8816921047      -1.7884937993
C    4         6                3.7966714921       4.6501959842      -2.4298062427
C    5         6                1.2931215219       4.2943694932      -1.6791369358
C    6         6                0.6534880623       2.1591307164      -0.2916704213
H    7         1                6.4707630090      -0.6312023709       0.0803438227
H    8         1                7.5855264722       3.1727198302      -2.3749457737
H    9         1                4.3072388872       6.3217282274      -3.5124231591
H    10        1               -0.1529666591       5.6797405281      -2.1482788697
H    11        1               -2.8195644293      -2.1015200156       2.9845595543
H    12        1                4.3031285061      -4.4188913900       0.8402182313
O    13        8                1.6118538229      -1.6658147445       1.6488767513
C    14        6                3.4011567084      -3.4982764425       2.4563205365
H    15        1                2.1993251722      -4.8429862215       3.4902294029
H    16        1                4.7970141548      -2.6576162609       3.7308594365
O    17        8               -1.7279873766       1.8762263189       0.6851680924
C    18        6               -3.6274472923       1.3077899351      -1.1459544511
H    19        1               -2.9982002966       1.6916324852      -3.0950425245
H    20        1               -5.1852588408       2.6087224887      -0.6470030324
C    21        6               -4.3856770723      -1.4722717538      -0.8186081170
H    22        1               -6.1355912056      -1.9253753364      -1.9028905813
H    23        1               -0.9293479577      -2.8576286346      -1.1182598345
C    24        6               -4.6549498926      -2.1790884164       1.9836747480
H    25        1               -6.0410579585      -0.9878743065       2.9872469338
H    26        1               -4.7709025806      -5.7742058206       1.0087221053
O    27        8               -2.5784989461      -3.0672543286      -1.9507040348
O    28        8               -5.6473662882      -4.6471694178       2.1952491086
[GTO]
1 0
s    6    1.00 
    116.0690322429      -0.1046234805
     21.2858804144      -0.1459904193
      5.9817916163      -0.1403997584
      0.8554094819       0.2121298425
      0.3882374328       0.1970386706
      0.1851482379       0.0344592482
p    6    1.00 
     17.0160777741       0.3903657330
      4.4374470513       0.4722439228
      1.5877608354       0.4822910285
      0.6637143790       0.3458254681
      0.3034954267       0.1288339964
      0.1434819294       0.0132401392

2 0
s    6    1.00 
    116.0690322429      -0.1046234805
     21.2858804144      -0.1459904193
      5.9817916163      -0.1403997584
      0.8554094819       0.2121298425
      0.3882374328       0.1970386706
      0.1851482379       0.0344592482
p    6    1.00 
     17.0160777741       0.3903657330
      4.4374470513       0.4722439228
      1.5877608354       0.4822910285
      0.6637143790       0.3458254681
      0.3034954267       0.1288339964
      0.1434819294       0.0132401392

3 0
s    6    1.00 
    116.0690322429      -0.1046234805
     21.2858804144      -0.1459904193
      5.9817916163      -0.1403997584
      0.8554094819       0.2121298425
      0.3882374328       0.1970386706
      0.1851482379       0.0344592482
p    6    1.00 
     17.0160777741       0.3903657330
      4.4374470513       0.4722439228
      1.5877608354       0.4822910285
      0.6637143790       0.3458254681
      0.3034954267       0.1288339964
      0.1434819294       0.0132401392

4 0
s    6    1.00 
    116.0690322429      -0.1046234805
     21.2858804144      -0.1459904193
      5.9817916163      -0.1403997584
      0.8554094819       0.2121298425
      0.3882374328       0.1970386706
      0.1851482379       0.0344592482
p    6    1.00 
     17.0160777741       0.3903657330
      4.4374470513       0.4722439228
      1.5877608354       0.4822910285
      0.6637143790       0.3458254681
      0.3034954267       0.1288339964
      0.1434819294       0.0132401392

5 0
s    6    1.00 
    116.0690322429      -0.1046234805
     21.2858804144      -0.1459904193
      5.9817916163      -0.1403997584
      0.8554094819       0.2121298425
      0.3882374328       0.1970386706
      0.1851482379       0.0344592482
p    6    1.00 
     17.0160777741       0.3903657330
      4.4374470513       0.4722439228
      1.5877608354       0.4822910285
      0.6637143790       0.3458254681
      0.3034954267       0.1288339964
      0.1434819294       0.0132401392

6 0
s    6    1.00 
    116.0690322429      -0.1046234805
     21.2858804144      -0.1459904193
      5.9817916163      -0.1403997584
      0.8554094819       0.2121298425
      0.3882374328       0.1970386706
      0.1851482379       0.0344592482
p    6    1.00 
     17.0160777741       0.3903657330
      4.4374470513       0.4722439228
      1.5877608354       0.4822910285
      0.6637143790       0.3458254681
      0.3034954267       0.1288339964
      0.1434819294       0.0132401392

7 0
s    6    1.00 
     37.1831737285       0.0983412856
      6.8174942006       0.1484283848
      1.9072891990       0.1949490512
      0.6552053164       0.1923335159
      0.2544353976       0.1063406754
      0.1047905476       0.0171084112

8 0
s    6    1.00 
     37.1831737285       0.0983412856
      6.8174942006       0.1484283848
      1.9072891990       0.1949490512
      0.6552053164       0.1923335159
      0.2544353976       0.1063406754
      0.1047905476       0.0171084112

9 0
s    6    1.00 
     37.1831737285       0.0983412856
      6.8174942006       0.1484283848
      1.9072891990       0.1949490512
      0.6552053164       0.1923335159
      0.2544353976       0.1063406754
      0.1047905476       0.0171084112

10 0
s    6    1.00 
     37.1831737285       0.0983412856
      6.8174942006       0.1484283848
      1.9072891990       0.1949490512
      0.6552053164       0.1923335159
      0.2544353976       0.1063406754
      0.1047905476       0.0171084112

11 0
s    6    1.00 
     37.1831737285       0.0983412856
      6.8174942006       0.1484283848
      1.9072891990       0.1949490512
      0.6552053164       0.1923335159
      0.2544353976       0.1063406754
      0.1047905476       0.0171084112

12 0
s    6    1.00 
     37.1831737285       0.0983412856
      6.8174942006       0.1484283848
      1.9072891990       0.1949490512
      0.6552053164       0.1923335159
      0.2544353976       0.1063406754
      0.1047905476       0.0171084112

13 0
s    6    1.00 
    813.8100984652      -0.4508003008
    149.2444978754      -0.6290416320
     41.9409236915      -0.6049526644
      5.9976452051       0.9140223237
      2.7221002652       0.8489976775
      1.2981542343       0.1484775632
p    6    1.00 
     30.2642722266       0.8017891105
      7.8923067546       0.9699622760
      2.8239425555       0.9905984621
      1.1804619674       0.7103059287
      0.5397876253       0.2646177332
      0.2551925438       0.0271944962

14 0
s    6    1.00 
    116.0690322429      -0.1046234805
     21.2858804144      -0.1459904193
      5.9817916163      -0.1403997584
      0.8554094819       0.2121298425
      0.3882374328       0.1970386706
      0.1851482379       0.0344592482
p    6    1.00 
     17.0160777741       0.3903657330
      4.4374470513       0.4722439228
      1.5877608354       0.4822910285
      0.6637143790       0.3458254681
      0.3034954267       0.1288339964
      0.1434819294       0.0132401392

15 0
s    6    1.00 
     37.1831737285       0.0983412856
      6.8174942006       0.1484283848
      1.9072891990       0.1949490512
      0.6552053164       0.1923335159
      0.2544353976       0.1063406754
      0.1047905476       0.0171084112

16 0
s    6    1.00 
     37.1831737285       0.0983412856
      6.8174942006       0.1484283848
      1.9072891990       0.1949490512
      0.6552053164       0.1923335159
      0.2544353976       0.1063406754
      0.1047905476       0.0171084112

17 0
s    6    1.00 
    813.8100984652      -0.4508003008
    149.2444978754      -0.6290416320
     41.9409236915      -0.6049526644
      5.9976452051       0.9140223237
      2.7221002652       0.8489976775
      1.2981542343       0.1484775632
p    6    1.00 
     30.2642722266       0.8017891105
      7.8923067546       0.9699622760
      2.8239425555       0.9905984621
      1.1804619674       0.7103059287
      0.5397876253       0.2646177332
      0.2551925438       0.0271944962

18 0
s    6    1.00 
    116.0690322429      -0.1046234805
     21.2858804144      -0.1459904193
      5.9817916163      -0.1403997584
      0.8554094819       0.2121298425
      0.3882374328       0.1970386706
      0.1851482379       0.0344592482
p    6    1.00 
     17.0160777741       0.3903657330
      4.4374470513       0.4722439228
      1.5877608354       0.4822910285
      0.6637143790       0.3458254681
      0.3034954267       0.1288339964
      0.1434819294       0.0132401392

19 0
s    6    1.00 
     37.1831737285       0.0983412856
      6.8174942006       0.1484283848
      1.9072891990       0.1949490512
      0.6552053164       0.1923335159
      0.2544353976       0.1063406754
      0.1047905476       0.0171084112

20 0
s    6    1.00 
     37.1831737285       0.0983412856
      6.8174942006       0.1484283848
      1.9072891990       0.1949490512
      0.6552053164       0.1923335159
      0.2544353976       0.1063406754
      0.1047905476       0.0171084112

21 0
s    6    1.00 
    116.0690322429      -0.1046234805
     21.2858804144      -0.1459904193
      5.9817916163      -0.1403997584
      0.8554094819       0.2121298425
      0.3882374328       0.1970386706
      0.1851482379       0.0344592482
p    6    1.00 
     17.0160777741       0.3903657330
      4.4374470513       0.4722439228
      1.5877608354       0.4822910285
      0.6637143790       0.3458254681
      0.3034954267       0.1288339964
      0.1434819294       0.0132401392

22 0
s    6    1.00 
     37.1831737285       0.0983412856
      6.8174942006       0.1484283848
      1.9072891990       0.1949490512
      0.6552053164       0.1923335159
      0.2544353976       0.1063406754
      0.1047905476       0.0171084112

23 0
s    6    1.00 
     37.1831737285       0.0983412856
      6.8174942006       0.1484283848
      1.9072891990       0.1949490512
      0.6552053164       0.1923335159
      0.2544353976       0.1063406754
      0.1047905476       0.0171084112

24 0
s    6    1.00 
    116.0690322429      -0.1046234805
     21.2858804144      -0.1459904193
      5.9817916163      -0.1403997584
      0.8554094819       0.2121298425
      0.3882374328       0.1970386706
      0.1851482379       0.0344592482
p    6    1.00 
     17.0160777741       0.3903657330
      4.4374470513       0.4722439228
      1.5877608354       0.4822910285
      0.6637143790       0.3458254681
      0.3034954267       0.1288339964
      0.1434819294       0.0132401392

25 0
s    6    1.00 
     37.1831737285       0.0983412856
      6.8174942006       0.1484283848
      1.9072891990       0.1949490512
      0.6552053164       0.1923335159
      0.2544353976       0.1063406754
      0.1047905476       0.0171084112

26 0
s    6    1.00 
     37.1831737285       0.0983412856
      6.8174942006       0.1484283848
      1.9072891990       0.1949490512
      0.6552053164       0.1923335159
      0.2544353976       0.1063406754
      0.1047905476       0.0171084112

27 0
s    6    1.00 
    813.8100984652      -0.4508003008
    149.2444978754      -0.6290416320
     41.9409236915      -0.6049526644
      5.9976452051       0.9140223237
      2.7221002652       0.8489976775
      1.2981542343       0.1484775632
p    6    1.00 
     30.2642722266       0.8017891105
      7.8923067546       0.9699622760
      2.8239425555       0.9905984621
      1.1804619674       0.7103059287
      0.5397876253       0.2646177332
      0.2551925438       0.0271944962

28 0
s    6    1.00 
    813.8100984652      -0.4508003008
    149.2444978754      -0.6290416320
     41.9409236915      -0.6049526644
      5.9976452051       0.9140223237
      2.7221002652       0.8489976775
      1.2981542343       0.1484775632
p    6    1.00 
     30.2642722266       0.8017891105
      7.8923067546       0.9699622760
      2.8239425555       0.9905984621
      1.1804619674       0.7103059287
      0.5397876253       0.2646177332
      0.2551925438       0.0271944962

[5D]
[7F]
[9G]
[MO]
Sym=      A1        
Ene=      -1.1626076357
Spin=     Alpha     
Occup=    2.0       
   1      0.3361783959
   2     -0.0615802012
   3     -0.1414100586
   4      0.0851326053
   5      0.1255417361
   6     -0.0717366338
   7     -0.0295510290
   8      0.0305645003
   9      0.0376220040
  10     -0.0227703326
  11     -0.0154647958
  12      0.0135162004
  13      0.0298645690
  14     -0.0090426875
  15     -0.0187167255
  16      0.0123028826
  17      0.0640814973
  18     -0.0067054522
  19     -0.0401739913
  20      0.0216600238
  21      0.2047359804
  22     -0.0316354910
  23     -0.0686590811
  24      0.0362236842
  25      0.0545795194
  26      0.0071425822
  27      0.0046498128
  28      0.0206933356
  29      0.0450459209
  30      0.0872141529
  31      0.6464989555
  32      0.1714701140
  33      0.0614106193
  34     -0.0702085427
  35      0.2260978528
  36     -0.0821362034
  37      0.1264379456
  38     -0.0645044431
  39      0.0710262452
  40      0.0858526821
  41      0.2646060849
  42      0.0452249070
  43     -0.0256418066
  44     -0.0860749990
  45      0.1381124520
  46      0.0574459872
  47     -0.0196211752
  48      0.0348431327
  49      0.0577076226
  50      0.0418585519
  51      0.1472594616
  52      0.0559955960
  53     -0.0123281862
  54     -0.0008411307
  55      0.0458108444
  56      0.1075410521
  57      0.0935317793
  58      0.0099451719
  59     -0.0106021335
  60     -0.0319192282
  61      0.0300573052
  62      0.0380014626
  63      0.2016109868
  64      0.0019403169
  65      0.0533395819
  66      0.0596178922
  67      0.0769476232
  68      0.0247708646
  69      0.0216291878
  70     -0.0203872962
Sym=      A1        
Ene=      -1.1470166090
Spin=     Alpha     
Occup=    2.0       
   1      0.1104268113
   2      0.0372329858
   3     -0.1249479943
   4      0.0702385515
   5      0.0623196103
   6     -0.0229065998
   7     -0.0293470938
   8      0.0230243595
   9      0.0049587365
  10      0.0018341586
  11     -0.0100721881
  12      0.0056699235
  13     -0.0129459744
  14      0.0135493450
  15      0.0029026639
  16     -0.0036318227
  17     -0.0773176395
  18      0.0362604813
  19      0.0321415596
  20     -0.0206702546
  21     -0.1741549725
  22      0.1575681900
  23     -0.0118852330
  24     -0.0081780824
  25      0.0360657773
  26      0.0022165923
  27     -0.0033694823
  28     -0.0378193118
  29     -0.0735269796
  30      0.0647447857
  31      0.3936021962
  32      0.1364437017
  33     -0.0036684653
  34     -0.0102162943
  35      0.1734453949
  36     -0.0560288628
  37      0.0852854375
  38     -0.0398873002
  39      0.0555681637
  40      0.0664515100
  41     -0.4809588657
  42     -0.0090032123
  43      0.0260783009
  44      0.1591258170
  45     -0.2810848612
  46     -0.0973114602
  47      0.0262138093
  48     -0.0738412941
  49     -0.1108449569
  50     -0.0938119781
  51     -0.2724518884
  52     -0.0835494117
  53      0.0081251633
  54     -0.0048689306
  55     -0.0889968041
  56     -0.1203896188
  57     -0.1804121820
  58     -0.0095155991
  59      0.0222263301
  60      0.0597925600
  61     -0.0607126909
  62     -0.0761533880
  63     -0.2962144875
  64      0.0240804809
  65     -0.0893162883
  66     -0.0907103538
  67     -0.1624469064
  68     -0.0483131308
  69     -0.0433548899
  70      0.0409776098
Sym=      A1        
Ene=      -1.1242666926
Spin=     Alpha     
Occup=    2.0       
   1     -0.2147590918
   2      0.0102271234
   3     -0.1249239543
   4      0.0661726506
   5     -0.1905928304
   6      0.0631084675
   7     -0.0655885942
   8      0.0243894636
   9     -0.2034874268
  10      0.0806075905
  11      0.0086636005
  12     -0.0223132431
  13     -0.2131519006
  14      0.0323967158
  15      0.0701658589
  16     -0.0480103812
  17     -0.2697941082
  18     -0.0321736124
  19      0.0861921692
  20     -0.0431234167
  21     -0.3618426207
  22      0.0075951661
  23     -0.0186740560
  24      0.0031892395
  25     -0.0447587352
  26     -0.0558287467
  27     -0.0583286654
  28     -0.0839652686
  29      0.0826009239
  30      0.0241578499
  31      0.1183193652
  32      0.0198594561
  33     -0.0712606518
  34      0.0289782540
  35      0.0751383427
  36     -0.0334896195
  37      0.0184218021
  38     -0.0083764284
  39      0.0340626193
  40      0.0220009451
  41     -0.3068765347
  42     -0.1144612364
  43     -0.0273680715
  44      0.0925318636
  45     -0.0081719026
  46     -0.0814861207
  47     -0.0770951967
  48     -0.0250366427
  49     -0.0154544474
  50      0.0002215771
  51      0.2272028905
  52      0.0497558305
  53     -0.0837465032
  54      0.0091793009
  55      0.0863296724
  56      0.1214795534
  57      0.2202296445
  58     -0.0100804486
  59     -0.0799036289
  60     -0.0497883932
  61      0.0692922544
  62      0.1337698418
  63      0.3201948806
  64     -0.0270964647
  65      0.0688142537
  66      0.0935159571
  67      0.3080912132
  68      0.0797624879
  69      0.0612906376
  70     -0.0661565410
Sym=      A1        
Ene=      -1.1104458908
Spin=     Alpha     
Occup=    2.0       
   1     -0.2065553337
   2     -0.0826603187
   3     -0.1175967052
   4      0.0868665989
   5     -0.2879194112
   6      0.0663481977
   7     -0.0872748209
   8      0.0375942297
   9     -0.3098854337
  10      0.1041303152
  11      0.0147240757
  12     -0.0304680929
  13     -0.2975859347
  14      0.0151000701
  15      0.0913920349
  16     -0.0567984924
  17     -0.2360658639
  18     -0.1148800516
  19      0.0475119066
  20     -0.0041226955
  21     -0.1066232070
  22     -0.2372652064
  23     -0.0371049854
  24      0.0718218072
  25     -0.0789823331
  26     -0.0918714984
  27     -0.0869278155
  28     -0.0537475474
  29     -0.0500943046
  30      0.0124863969
  31      0.1467840338
  32      0.0162584941
  33     -0.0369569888
  34      0.0246766562
  35      0.0546817703
  36     -0.0332409830
  37      0.0210746654
  38     -0.0058043916
  39      0.0233922203
  40      0.0135094964
  41      0.4135064863
  42     -0.0132509319
  43     -0.0075690101
  44     -0.0927363386
  45      0.1177898473
  46      0.0837330202
  47      0.0544899987
  48      0.0681087076
  49      0.0356981561
  50      0.0437350753
  51     -0.1072452818
  52     -0.0188137058
  53      0.0877349053
  54     -0.0050787666
  55     -0.0471656945
  56     -0.0732331920
  57     -0.1506656416
  58      0.0191320451
  59      0.0866401278
  60      0.0231466675
  61     -0.0439744043
  62     -0.1189135196
  63     -0.2035711569
  64      0.0164944553
  65     -0.0321694369
  66     -0.0568555271
  67     -0.2836381969
  68     -0.0679862740
  69     -0.0456301673
  70      0.0561842892
Sym=      A1        
Ene=      -1.0750974003
Spin=     Alpha     
Occup=    2.0       
   1      0.0041958793
   2     -0.0203311486
   3     -0.0038987756
   4      0.0153016867
   5     -0.0269501894
   6      0.0002096725
   7     -0.0087971280
   8      0.0069300370
   9     -0.0344977801
  10      0.0076837502
  11      0.0013431674
  12     -0.0019610911
  13     -0.0278606065
  14     -0.0049159156
  15      0.0074802764
  16     -0.0027526117
  17      0.0032249624
  18     -0.0208362024
  19     -0.0072834304
  20      0.0113171016
  21      0.0557919392
  22     -0.0549885706
  23      0.0007741752
  24      0.0244716854
  25     -0.0082733383
  26     -0.0118205471
  27     -0.0094321927
  28      0.0051764209
  29      0.0652369200
  30      0.0011561373
  31      0.0343784062
  32      0.0133603199
  33      0.0094716215
  34      0.0090214408
  35      0.0103166745
  36     -0.0043900220
  37      0.0083373900
  38      0.0002937275
  39      0.0032634938
  40      0.0046284549
  41      0.1611881472
  42      0.0392373303
  43      0.0182069154
  44     -0.0217032470
  45     -0.0421531369
  46      0.0253070436
  47      0.0602454282
  48      0.0366069044
  49     -0.0266896207
  50     -0.0054267399
  51     -0.1344270151
  52     -0.1385576044
  53      0.0392631661
  54      0.1184295399
  55     -0.0322327083
  56     -0.2004254284
  57      0.2109931909
  58     -0.0777309477
  59     -0.1731752195
  60      0.0436966106
  61      0.0793238842
  62      0.2289384382
  63     -0.5317446005
  64     -0.0290920602
  65     -0.1061856289
  66     -0.0907391954
  67      0.6156962489
  68      0.1229208334
  69      0.0713957780
  70     -0.0926777327
Sym=      A1        
Ene=      -1.0062546203
Spin=     Alpha     
Occup=    2.0       
   1      0.1807271373
   2     -0.1611914203
   3      0.0224180730
   4      0.0218106982
   5     -0.1374218876
   6     -0.0687047188
   7     -0.0520964248
   8      0.0455382751
   9     -0.2513151062
  10      0.0252712842
  11     -0.0075243903
  12     -0.0004700751
  13     -0.1941791324
  14     -0.0529562311
  15      0.0373425451
  16     -0.0084363748
  17     -0.0058668057
  18     -0.0740853259
  19     -0.0580713074
  20      0.0592347119
  21      0.2526194754
  22     -0.0007001760
  23     -0.0660628691
  24      0.0752261169
  25     -0.0708051259
  26     -0.1032583075
  27     -0.0779915227
  28     -0.0062894248
  29     -0.0509299722
  30     -0.1096735738
  31      0.0136012916
  32     -0.0812530900
  33      0.1920267382
  34     -0.1055252228
  35     -0.2618164511
  36      0.0236855266
  37     -0.0067841755
  38     -0.0008352249
  39     -0.1186879286
  40     -0.1100807750
  41      0.0077281834
  42      0.2597059602
  43      0.0390616040
  44      0.0542295256
  45     -0.3683374657
  46      0.0494840906
  47      0.0365887230
  48     -0.0469856710
  49     -0.1277500293
  50     -0.1740268925
  51     -0.2449600737
  52      0.0604071479
  53     -0.1522305038
  54     -0.0507936748
  55     -0.1028170238
  56      0.1201584378
  57     -0.1401406093
  58     -0.0047536030
  59     -0.0959703306
  60      0.0523517166
  61     -0.0775410451
  62      0.0645346518
  63      0.2861541912
  64      0.0895257513
  65     -0.0296326669
  66      0.0247650552
  67      0.1503965345
  68      0.0202226291
  69     -0.0460983865
  70     -0.0182633036
Sym=      A1        
Ene=      -0.9775742354
Spin=     Alpha     
Occup=    2.0       
   1      0.3386641652
   2      0.0053753135
   3     -0.0200103819
   4      0.0041477392
   5      0.2007774159
   6     -0.0890521183
   7     -0.0331680062
   8      0.0363500692
   9     -0.0436610622
  10      0.0304825845
  11     -0.1045376525
  12      0.0540263602
  13     -0.2525221340
  14      0.0601821978
  15     -0.0094536540
  16     -0.0084650185
  17     -0.2721034393
  18     -0.0339665461
  19     -0.0288553406
  20      0.0198367585
  21     -0.0188970385
  22      0.1114630670
  23     -0.1743148860
  24      0.0570907267
  25      0.0660631545
  26     -0.0206733663
  27     -0.1096199721
  28     -0.1224664902
  29      0.0534585031
  30     -0.1465847290
  31     -0.0181030135
  32     -0.0486352535
  33      0.2794940017
  34     -0.1503012038
  35     -0.3667773731
  36      0.0540075021
  37      0.0137712982
  38     -0.0134599490
  39     -0.1835638193
  40     -0.1430564236
  41     -0.1251113140
  42     -0.0690629712
  43     -0.0749569975
  44      0.0103553334
  45      0.1845757767
  46     -0.0711771200
  47     -0.0734937446
  48      0.0016605314
  49      0.0596556730
  50      0.0867173728
  51      0.2156382754
  52     -0.0551041320
  53      0.0927280264
  54      0.0489994975
  55      0.0941648272
  56     -0.0841554712
  57      0.1482118995
  58      0.0035456980
  59      0.0789427418
  60     -0.0477078255
  61      0.0766385109
  62     -0.0599165998
  63     -0.2192514697
  64     -0.0789333732
  65      0.0301827896
  66     -0.0087441023
  67     -0.1359598378
  68     -0.0142868893
  69      0.0563264335
  70      0.0154829140
Sym=      A1        
Ene=      -0.9614255748
Spin=     Alpha     
Occup=    2.0       
   1      0.0704694213
   2      0.2018590321
   3      0.0166051465
   4     -0.0497436503
   5      0.4094213673
   6      0.0361350907
   7      0.0269008899
   8     -0.0237282852
   9      0.2577216369
  10      0.0500812394
  11     -0.1464364888
  12      0.0746753639
  13     -0.1804848750
  14      0.1813414762
  15     -0.0566406850
  16     -0.0050756834
  17     -0.3960598736
  18     -0.0208714780
  19      0.0076359795
  20      0.0044327707
  21     -0.1666146409
  22     -0.0819777010
  23     -0.1159874003
  24      0.1008868873
  25      0.1924578207
  26      0.1196848314
  27     -0.0806710363
  28     -0.1698039325
  29     -0.0454546173
  30      0.0881870787
  31     -0.1913067977
  32      0.0593940172
  33     -0.0585086258
  34      0.0187051620
  35      0.1526103291
  36      0.0486327295
  37     -0.0247434815
  38      0.0039629824
  39      0.0635066898
  40      0.0855145547
  41      0.2546593233
  42     -0.0075673566
  43     -0.0110507063
  44      0.0157859222
  45     -0.1213111180
  46      0.0771292587
  47      0.0536199588
  48      0.0550022159
  49     -0.0692725821
  50     -0.0617738683
  51     -0.1801747459
  52      0.0498055899
  53     -0.0562062918
  54     -0.0285346698
  55     -0.0855469058
  56      0.0629430351
  57     -0.1239724432
  58     -0.0006176134
  59     -0.0577765906
  60      0.0385809253
  61     -0.0624877155
  62      0.0500854075
  63      0.1556604795
  64      0.0711541903
  65     -0.0279348759
  66      0.0037267747
  67      0.1131329100
  68      0.0104833902
  69     -0.0519104058
  70     -0.0123704293
Sym=      A1        
Ene=      -0.9243435267
Spin=     Alpha     
Occup=    2.0       
   1      0.1567753593
   2      0.0677756378
   3      0.1507602738
   4     -0.0935995371
   5      0.0819274586
   6     -0.1032651363
   7     -0.1004906341
   8      0.0820680767
   9     -0.3228913868
  10      0.0119513204
  11     -0.1201162378
  12      0.0682164873
  13     -0.3187794547
  14     -0.1386309346
  15      0.0215603878
  16      0.0175900257
  17      0.0984621659
  18     -0.1245976753
  19     -0.1056392196
  20      0.0893103389
  21      0.2625727317
  22      0.0806191304
  23      0.0362979444
  24     -0.0354022910
  25      0.0528507650
  26     -0.1605507305
  27     -0.1588265005
  28      0.0395199193
  29      0.0269800375
  30      0.2041425388
  31     -0.2921914767
  32      0.0979844108
  33     -0.1169405183
  34      0.0601751520
  35      0.4022915991
  36      0.0731123398
  37     -0.0704067503
  38      0.0308934224
  39      0.1906599119
  40      0.2037482718
  41     -0.1377688801
  42      0.1037221946
  43      0.0256940281
  44     -0.0130997726
  45      0.0004245343
  46     -0.0384505436
  47     -0.0383295562
  48     -0.0510376566
  49      0.0197983317
  50     -0.0011641177
  51      0.1043479348
  52     -0.0288647100
  53     -0.0016332206
  54      0.0129534119
  55      0.0540756377
  56     -0.0356098497
  57      0.0838515076
  58     -0.0027957867
  59      0.0270341004
  60     -0.0233043961
  61      0.0399720989
  62     -0.0323750606
  63     -0.0551770893
  64     -0.0526266038
  65      0.0187573188
  66      0.0045773077
  67     -0.0712804988
  68     -0.0040786254
  69      0.0421478553
  70      0.0070738699
Sym=      A1        
Ene=      -0.8869589527
Spin=     Alpha     
Occup=    2.0       
   1      0.0647188844
   2      0.0556794230
   3     -0.0217092186
   4     -0.0174047879
   5      0.0424692924
   6     -0.0465086065
   7     -0.0465484803
   8      0.0320324986
   9     -0.1128237053
  10     -0.0098261911
  11     -0.0360364022
  12      0.0213328542
  13     -0.0603059226
  14     -0.0724025637
  15      0.0142757722
  16      0.0024553391
  17      0.0732075557
  18     -0.0261838081
  19     -0.0053014382
  20     -0.0108646491
  21     -0.0359251406
  22      0.0739787864
  23      0.0294883401
  24     -0.0986935749
  25      0.0203153819
  26     -0.0621731744
  27     -0.0318990815
  28      0.0459721498
  29     -0.2168563980
  30     -0.0112633029
  31     -0.0137542691
  32      0.0329705416
  33      0.0275701868
  34     -0.0312867670
  35     -0.0378847865
  36      0.0133149789
  37      0.0128824386
  38     -0.0126312703
  39     -0.0301596390
  40     -0.0131908472
  41     -0.1513809450
  42     -0.1940010907
  43     -0.0008349242
  44     -0.1240996277
  45      0.3924204002
  46     -0.0165809806
  47      0.0668791727
  48     -0.0790951492
  49      0.2185184000
  50      0.1896923376
  51     -0.0829212719
  52      0.0528676657
  53      0.1507338891
  54     -0.1964286704
  55     -0.0214106597
  56      0.0095283354
  57     -0.4682450878
  58     -0.0136217461
  59     -0.0842476099
  60     -0.0114528327
  61     -0.2285888416
  62      0.1680218388
  63      0.0455213386
  64      0.0320514683
  65      0.0253865215
  66     -0.0548854587
  67      0.2991193168
  68     -0.0092735908
  69     -0.2696812902
  70     -0.0673810962
Sym=      A1        
Ene=      -0.8187919892
Spin=     Alpha     
Occup=    2.0       
   1     -0.0560768789
   2     -0.1726202879
   3      0.0742336537